 vasp.6.1.2 22Jul20 (build Mar 31 2021 23:44:53) complex                        
  
 executed on             LinuxIFC date 2023.12.08  03:27:47
 running on   64 total cores
 distrk:  each k-point on   64 cores,    1 groups
 distr:  one band on NCORE=   4 cores,   16 groups


--------------------------------------------------------------------------------------------------------


 INCAR:
 POTCAR:    PAW_PBE Cu 22Jun2005                  
 POTCAR:     PAW_PBE Pd 04Jan2005                 
 POTCAR:     PAW_PBE Ag 02Apr2005                 
 POTCAR:     PAW_PBE Pt 04Feb2005                 
 POTCAR:     PAW_PBE Au 04Oct2007                 
 POTCAR:    PAW_PBE Cu 22Jun2005                  
   SHA256 =  0e71e558f37a4e8407882b4609ceaae59938afaad9ced71dfe8490308a0ab630 Cu/POTCAR             
   COPYR  = (c) Copyright 22Jun2005 Georg Kresse                                                    
   COPYR  = This file is part of the software VASP. Any use, copying, and all other rights are regul
   COPYR  = If you do not have a valid VASP license, you may not use, copy or distribute this file. 
   VRHFIN =Cu: d10 p1                                                                               
   LEXCH  = PE                                                                                      
   EATOM  =  1390.9808 eV,  102.2342 Ry                                                             
                                                                                                    
   TITEL  = PAW_PBE Cu 22Jun2005                                                                    
   LULTRA =        F    use ultrasoft PP ?                                                          
   IUNSCR =        1    unscreen: 0-lin 1-nonlin 2-no                                               
   RPACOR =    2.000    partial core radius                                                         
   POMASS =   63.546; ZVAL   =   11.000    mass and valenz                                          
   RCORE  =    2.300    outmost cutoff radius                                                       
   RWIGS  =    2.200; RWIGS  =    1.164    wigner-seitz radius (au A)                               
   ENMAX  =  295.446; ENMIN  =  221.585 eV                                                          
   ICORE  =        3    local potential                                                             
   LCOR   =        T    correct aug charges                                                         
   LPAW   =        T    paw PP                                                                      
   EAUG   =  586.980                                                                                
   DEXC   =    0.000                                                                                
   RMAX   =    2.344    core radius for proj-oper                                                   
   RAUG   =    1.300    factor for augmentation sphere                                              
   RDEP   =    2.302    radius for radial grids                                                     
   RDEPT  =    1.771    core radius for aug-charge                                                  
                                                                                                    
   Atomic configuration                                                                             
    9 entries                                                                                       
     n  l   j            E        occ.                                                              
     1  0  0.50     -8850.2468   2.0000                                                             
     2  0  0.50     -1062.3498   2.0000                                                             
     2  1  1.50      -916.8226   6.0000                                                             
     3  0  0.50      -114.6929   2.0000                                                             
     3  1  1.50       -72.1325   6.0000                                                             
     3  2  2.50        -5.0394  10.0000                                                             
     4  0  0.50        -4.6097   1.0000                                                             
     4  1  0.50        -4.0817   0.0000                                                             
     4  3  2.50        -1.3606   0.0000                                                             
   Description                                                                                      
     l       E           TYP  RCUT    TYP  RCUT                                                     
     2     -5.0393973     23  2.200                                                                 
     2     10.8846608     23  2.200                                                                 
     0     -4.6097109     23  2.200                                                                 
     0      8.2520465     23  2.200                                                                 
     1     -2.7211652     23  2.200                                                                 
     1     21.7055443     23  2.200                                                                 
     3      2.7211652     23  2.300                                                                 
  local pseudopotential read in
  partial core-charges read in
  partial kinetic energy density read in
  atomic valenz-charges read in
  non local Contribution for L=           2  read in
    real space projection operators read in
  non local Contribution for L=           2  read in
    real space projection operators read in
  non local Contribution for L=           0  read in
    real space projection operators read in
  non local Contribution for L=           0  read in
    real space projection operators read in
  non local Contribution for L=           1  read in
    real space projection operators read in
  non local Contribution for L=           1  read in
    real space projection operators read in
    PAW grid and wavefunctions read in
 
   number of l-projection  operators is LMAX  =           6
   number of lm-projection operators is LMMAX =          18
 
 POTCAR:     PAW_PBE Pd 04Jan2005                 
   SHA256 =  dd6f6f02930356371984e2b707ff5e456046761dc76b07c1eba30abd15eb3c39 Pd/POTCAR             
   COPYR  = (c) Copyright 04Jan2005 Georg Kresse                                                    
   COPYR  = This file is part of the software VASP. Any use, copying, and all other rights are regul
   COPYR  = If you do not have a valid VASP license, you may not use, copy or distribute this file. 
   VRHFIN =Pd : s1 d9                                                                               
   LEXCH  = PE                                                                                      
   EATOM  =   809.7530 eV,   59.5152 Ry                                                             
                                                                                                    
   TITEL  = PAW_PBE Pd 04Jan2005                                                                    
   LULTRA =        F    use ultrasoft PP ?                                                          
   IUNSCR =        1    unscreen: 0-lin 1-nonlin 2-no                                               
   RPACOR =    2.000    partial core radius                                                         
   POMASS =  106.420; ZVAL   =   10.000    mass and valenz                                          
   RCORE  =    2.600    outmost cutoff radius                                                       
   RWIGS  =    2.710; RWIGS  =    1.434    wigner-seitz radius (au A)                               
   ENMAX  =  250.925; ENMIN  =  188.194 eV                                                          
   ICORE  =        3    local potential                                                             
   LCOR   =        T    correct aug charges                                                         
   LPAW   =        T    paw PP                                                                      
   EAUG   =  416.230                                                                                
   DEXC   =    0.000                                                                                
   RMAX   =    2.653    core radius for proj-oper                                                   
   RAUG   =    1.300    factor for augmentation sphere                                              
   RDEP   =    2.734    radius for radial grids                                                     
   RDEPT  =    2.103    core radius for aug-charge                                                  
                                                                                                    
   Atomic configuration                                                                             
   12 entries                                                                                       
     n  l   j            E        occ.                                                              
     1  0  0.50    -24164.6631   2.0000                                                             
     2  0  0.50     -3530.9218   2.0000                                                             
     2  1  1.50     -3165.6822   6.0000                                                             
     3  0  0.50      -639.4577   2.0000                                                             
     3  1  1.50      -519.4532   6.0000                                                             
     3  2  2.50      -328.9757  10.0000                                                             
     4  0  0.50       -88.7014   2.0000                                                             
     4  1  1.50       -54.4540   6.0000                                                             
     4  2  2.50        -6.6878   9.0000                                                             
     5  0  0.50        -4.3543   1.0000                                                             
     5  1  0.50        -1.3606   0.0000                                                             
     4  3  2.50        -1.3606   0.0000                                                             
   Description                                                                                      
     l       E           TYP  RCUT    TYP  RCUT                                                     
     2     -6.6878251     23  2.400                                                                 
     2     -8.0484077     23  2.400                                                                 
     0     -4.3542939     23  2.400                                                                 
     0      4.3406793     23  2.400                                                                 
     1     -4.0817478     23  2.600                                                                 
     1     15.8380318     23  2.600                                                                 
     3     -4.0817478     23  2.400                                                                 
  local pseudopotential read in
  partial core-charges read in
  partial kinetic energy density read in
  atomic valenz-charges read in
  non local Contribution for L=           2  read in
    real space projection operators read in
  non local Contribution for L=           2  read in
    real space projection operators read in
  non local Contribution for L=           0  read in
    real space projection operators read in
  non local Contribution for L=           0  read in
    real space projection operators read in
  non local Contribution for L=           1  read in
    real space projection operators read in
  non local Contribution for L=           1  read in
    real space projection operators read in
    PAW grid and wavefunctions read in
 
   number of l-projection  operators is LMAX  =           6
   number of lm-projection operators is LMMAX =          18
 
 POTCAR:     PAW_PBE Ag 02Apr2005                 
   SHA256 =  6550cfa3543261e132c169e1b98a529204624d72be14e2da2e0242bcb74a174d Ag/POTCAR             
   COPYR  = (c) Copyright 02Apr2005 Georg Kresse                                                    
   COPYR  = This file is part of the software VASP. Any use, copying, and all other rights are regul
   COPYR  = If you do not have a valid VASP license, you may not use, copy or distribute this file. 
   VRHFIN =Ag : s1 d10                                                                              
   LEXCH  = PE                                                                                      
   EATOM  =  1037.2675 eV,   76.2370 Ry                                                             
                                                                                                    
   TITEL  = PAW_PBE Ag 02Apr2005                                                                    
   LULTRA =        F    use ultrasoft PP ?                                                          
   IUNSCR =        1    unscreen: 0-lin 1-nonlin 2-no                                               
   RPACOR =    2.000    partial core radius                                                         
   POMASS =  107.868; ZVAL   =   11.000    mass and valenz                                          
   RCORE  =    2.500    outmost cutoff radius                                                       
   RWIGS  =    2.840; RWIGS  =    1.503    wigner-seitz radius (au A)                               
   ENMAX  =  249.844; ENMIN  =  187.383 eV                                                          
   ICORE  =        3    local potential                                                             
   LCOR   =        T    correct aug charges                                                         
   LPAW   =        T    paw PP                                                                      
   EAUG   =  412.496                                                                                
   DEXC   =    0.000                                                                                
   RMAX   =    2.560    core radius for proj-oper                                                   
   RAUG   =    1.300    factor for augmentation sphere                                              
   RDEP   =    2.576    radius for radial grids                                                     
   RDEPT  =    2.072    core radius for aug-charge                                                  
                                                                                                    
   Atomic configuration                                                                             
   12 entries                                                                                       
     n  l   j            E        occ.                                                              
     1  0  0.50    -25324.9161   2.0000                                                             
     2  0  0.50     -3728.5341   2.0000                                                             
     2  1  1.50     -3344.0404   6.0000                                                             
     3  0  0.50      -683.5581   2.0000                                                             
     3  1  1.50      -557.3225   6.0000                                                             
     3  2  2.50      -358.3853  10.0000                                                             
     4  0  0.50       -95.0341   2.0000                                                             
     4  1  1.50       -58.5511   6.0000                                                             
     4  2  2.50        -7.4440  10.0000                                                             
     5  0  0.50        -4.4045   1.0000                                                             
     5  1  0.50        -1.3606   0.0000                                                             
     4  3  2.50        -1.3606   0.0000                                                             
   Description                                                                                      
     l       E           TYP  RCUT    TYP  RCUT                                                     
     2     -7.4439781     23  2.400                                                                 
     2     -8.8045607     23  2.400                                                                 
     0     -4.4044681     23  2.400                                                                 
     0      1.9520038     23  2.400                                                                 
     1     -1.3605826     23  2.500                                                                 
     1     27.2116520     23  2.500                                                                 
     3     -4.0817478     23  2.400                                                                 
  local pseudopotential read in
  partial core-charges read in
  partial kinetic energy density read in
  atomic valenz-charges read in
  non local Contribution for L=           2  read in
    real space projection operators read in
  non local Contribution for L=           2  read in
    real space projection operators read in
  non local Contribution for L=           0  read in
    real space projection operators read in
  non local Contribution for L=           0  read in
    real space projection operators read in
  non local Contribution for L=           1  read in
    real space projection operators read in
  non local Contribution for L=           1  read in
    real space projection operators read in
    PAW grid and wavefunctions read in
 
   number of l-projection  operators is LMAX  =           6
   number of lm-projection operators is LMMAX =          18
 
 POTCAR:     PAW_PBE Pt 04Feb2005                 
   SHA256 =  3ed90460adef76debcff1cfb73ee1349b515b1a3db03439735b44de3a8db7dc8 Pt/POTCAR             
   COPYR  = (c) Copyright 04Feb2005 Georg Kresse                                                    
   COPYR  = This file is part of the software VASP. Any use, copying, and all other rights are regul
   COPYR  = If you do not have a valid VASP license, you may not use, copy or distribute this file. 
   VRHFIN =Pt: s1d9                                                                                 
   LEXCH  = PE                                                                                      
   EATOM  =   729.1176 eV,   53.5886 Ry                                                             
                                                                                                    
   TITEL  = PAW_PBE Pt 04Feb2005                                                                    
   LULTRA =        F    use ultrasoft PP ?                                                          
   IUNSCR =        1    unscreen: 0-lin 1-nonlin 2-no                                               
   RPACOR =    2.330    partial core radius                                                         
   POMASS =  195.080; ZVAL   =   10.000    mass and valenz                                          
   RCORE  =    2.600    outmost cutoff radius                                                       
   RWIGS  =    2.750; RWIGS  =    1.455    wigner-seitz radius (au A)                               
   ENMAX  =  230.283; ENMIN  =  172.712 eV                                                          
   ICORE  =        3    local potential                                                             
   LCOR   =        T    correct aug charges                                                         
   LPAW   =        T    paw PP                                                                      
   EAUG   =  358.966                                                                                
   DEXC   =    0.000                                                                                
   RMAX   =    2.658    core radius for proj-oper                                                   
   RAUG   =    1.300    factor for augmentation sphere                                              
   RDEP   =    2.761    radius for radial grids                                                     
   RDEPT  =    2.203    core radius for aug-charge                                                  
                                                                                                    
   Atomic configuration                                                                             
   16 entries                                                                                       
     n  l   j            E        occ.                                                              
     1  0  0.50    -78401.1885   2.0000                                                             
     2  0  0.50    -13770.7750   2.0000                                                             
     2  1  1.50    -11931.0468   6.0000                                                             
     3  0  0.50     -3234.7234   2.0000                                                             
     3  1  1.50     -2699.2216   6.0000                                                             
     3  2  2.50     -2119.5714  10.0000                                                             
     4  0  0.50      -695.1528   2.0000                                                             
     4  1  1.50      -519.6034   6.0000                                                             
     4  2  2.50      -306.6786  10.0000                                                             
     4  3  3.50       -70.1041  14.0000                                                             
     5  0  0.50      -101.7747   2.0000                                                             
     5  1  1.50       -55.9873   6.0000                                                             
     5  2  2.50        -6.1423   9.0000                                                             
     6  0  0.50        -5.6573   1.0000                                                             
     6  1  1.50        -6.8029   0.0000                                                             
     5  3  2.50        -1.3606   0.0000                                                             
   Description                                                                                      
     l       E           TYP  RCUT    TYP  RCUT                                                     
     2     -6.1423404     23  2.500                                                                 
     2     -7.5029230     23  2.500                                                                 
     0     -5.6573207     23  2.500                                                                 
     0      0.7416693     23  2.500                                                                 
     1     -2.7211652     23  2.600                                                                 
     1     20.4087390     23  2.600                                                                 
     3     -1.3605826     23  2.500                                                                 
  local pseudopotential read in
  partial core-charges read in
  partial kinetic energy density read in
  atomic valenz-charges read in
  non local Contribution for L=           2  read in
    real space projection operators read in
  non local Contribution for L=           2  read in
    real space projection operators read in
  non local Contribution for L=           0  read in
    real space projection operators read in
  non local Contribution for L=           0  read in
    real space projection operators read in
  non local Contribution for L=           1  read in
    real space projection operators read in
  non local Contribution for L=           1  read in
    real space projection operators read in
    PAW grid and wavefunctions read in
 
   number of l-projection  operators is LMAX  =           6
   number of lm-projection operators is LMMAX =          18
 
 POTCAR:     PAW_PBE Au 04Oct2007                 
   SHA256 =  d0044ae04e2bdce24051b198fc5c053d722a5bc6fe3c3b100514a13fc5d2db88 Au/POTCAR             
   COPYR  = (c) Copyright 04Oct2007 Georg Kresse                                                    
   COPYR  = This file is part of the software VASP. Any use, copying, and all other rights are regul
   COPYR  = If you do not have a valid VASP license, you may not use, copy or distribute this file. 
   VRHFIN =Au: s1d10                                                                                
   LEXCH  = PE                                                                                      
   EATOM  =   926.0867 eV,   68.0654 Ry                                                             
                                                                                                    
   TITEL  = PAW_PBE Au 04Oct2007                                                                    
   LULTRA =        F    use ultrasoft PP ?                                                          
   IUNSCR =        1    unscreen: 0-lin 1-nonlin 2-no                                               
   RPACOR =    2.330    partial core radius                                                         
   POMASS =  196.966; ZVAL   =   11.000    mass and valenz                                          
   RCORE  =    2.500    outmost cutoff radius                                                       
   RWIGS  =    2.840; RWIGS  =    1.503    wigner-seitz radius (au A)                               
   ENMAX  =  229.943; ENMIN  =  172.457 eV                                                          
   ICORE  =        3    local potential                                                             
   LCOR   =        T    correct aug charges                                                         
   LPAW   =        T    paw PP                                                                      
   EAUG   =  356.670                                                                                
   DEXC   =    0.000                                                                                
   RMAX   =    2.562    core radius for proj-oper                                                   
   RAUG   =    1.300    factor for augmentation sphere                                              
   RDEP   =    2.598    radius for radial grids                                                     
   RDEPT  =    2.193    core radius for aug-charge                                                  
                                                                                                    
   Atomic configuration                                                                             
   16 entries                                                                                       
     n  l   j            E        occ.                                                              
     1  0  0.50    -80748.5001   2.0000                                                             
     2  0  0.50    -14244.7466   2.0000                                                             
     2  1  1.50    -12310.9591   6.0000                                                             
     3  0  0.50     -3362.1768   2.0000                                                             
     3  1  1.50     -2801.5463   6.0000                                                             
     3  2  2.50     -2203.8206  10.0000                                                             
     4  0  0.50      -729.8168   2.0000                                                             
     4  1  1.50      -546.0527   6.0000                                                             
     4  2  2.50      -325.7302  10.0000                                                             
     4  3  3.50       -81.1472  14.0000                                                             
     5  0  0.50      -108.3201   2.0000                                                             
     5  1  1.50       -59.7479   6.0000                                                             
     5  2  2.50        -6.8783  10.0000                                                             
     6  0  0.50        -5.7602   1.0000                                                             
     6  1  1.50        -6.8029   0.0000                                                             
     5  3  2.50        -1.3606   0.0000                                                             
   Description                                                                                      
     l       E           TYP  RCUT    TYP  RCUT                                                     
     2     -6.8782861     23  2.500                                                                 
     2     -8.2388687     23  2.500                                                                 
     0     -5.7601759     23  2.500                                                                 
     0     -0.8493231     23  2.500                                                                 
     1     -2.7211652     23  2.500                                                                 
     1     27.2116520     23  2.500                                                                 
     3     -1.3605826     23  2.500                                                                 
  local pseudopotential read in
  partial core-charges read in
  partial kinetic energy density read in
  atomic valenz-charges read in
  non local Contribution for L=           2  read in
    real space projection operators read in
  non local Contribution for L=           2  read in
    real space projection operators read in
  non local Contribution for L=           0  read in
    real space projection operators read in
  non local Contribution for L=           0  read in
    real space projection operators read in
  non local Contribution for L=           1  read in
    real space projection operators read in
  non local Contribution for L=           1  read in
    real space projection operators read in
    PAW grid and wavefunctions read in
 
   number of l-projection  operators is LMAX  =           6
   number of lm-projection operators is LMMAX =          18
 
 -----------------------------------------------------------------------------
|                                                                             |
|               ----> ADVICE to this user running VASP <----                  |
|                                                                             |
|     You have a (more or less) 'large supercell' and for larger cells it     |
|     might be more efficient to use real-space projection operators.         |
|     Therefore, try LREAL= Auto in the INCAR file.                           |
|     Mind: For very accurate calculation, you might also keep the            |
|     reciprocal projection scheme (i.e. LREAL=.FALSE.).                      |
|                                                                             |
 -----------------------------------------------------------------------------

 -----------------------------------------------------------------------------
|                                                                             |
|               ----> ADVICE to this user running VASP <----                  |
|                                                                             |
|     You enforced a specific xc type in the INCAR file but a different       |
|     type was found in the POTCAR file.                                      |
|     I HOPE YOU KNOW WHAT YOU ARE DOING!                                     |
|                                                                             |
 -----------------------------------------------------------------------------

  PAW_PBE Cu 22Jun2005                  :
 energy of atom  1       EATOM=-1390.9808
 kinetic energy error for atom=    0.0015 (will be added to EATOM!!)
   PAW_PBE Pd 04Jan2005                 :
 energy of atom  2       EATOM= -809.7530
 kinetic energy error for atom=    0.0010 (will be added to EATOM!!)
   PAW_PBE Ag 02Apr2005                 :
 energy of atom  3       EATOM=-1037.2675
 kinetic energy error for atom=    0.0011 (will be added to EATOM!!)
   PAW_PBE Pt 04Feb2005                 :
 energy of atom  4       EATOM= -729.1176
 kinetic energy error for atom=    0.0010 (will be added to EATOM!!)
   PAW_PBE Au 04Oct2007                 :
 energy of atom  5       EATOM= -926.0867
 kinetic energy error for atom=    0.0010 (will be added to EATOM!!)
 
 
 POSCAR: Cu Pd Ag Pt Au
  positions in cartesian coordinates
  No initial velocities read in
 exchange correlation table for  LEXCH =        9
   RHO(1)=    0.500       N(1)  =     2000
   RHO(2)=  100.500       N(2)  =     4000

 VTST: version 3.2, (02/03/18)

 CHAIN: initializing optimizer
 
 OPT: Using VASP Conjugate-Gradient optimizer
 CHAIN: Read ICHAIN            0
 
 POSCAR: Cu Pd Ag Pt Au
  positions in cartesian coordinates
  No initial velocities read in
 


--------------------------------------------------------------------------------------------------------


 ion  position               nearest neighbor table
   1  0.667  0.333  0.657-  20 2.81  39 2.81  12 2.81  38 2.81  22 2.81  15 2.81  18 2.81
   2  0.222  0.556  0.343-  41 2.81  27 2.81  19 2.81  16 2.81  29 2.81  13 2.81  24 2.81  32 2.81

   3  0.556  0.222  0.343-  29 2.81  21 2.81  13 2.81  17 2.81  26 2.81  41 2.81  37 2.81  27 2.81

   4  0.667  0.000  0.657-  44 2.81  10 2.81  12 2.81  18 2.81  15 2.81  34 2.81
   5  0.667  0.667  0.421-  40 2.81  19 2.81  31 2.81  24 2.81  16 2.81  17 2.81  13 2.81  37 2.81
                            26 2.81  30 2.81  42 2.81  23 2.81
   6  0.333  0.000  0.657-  15 2.81  34 2.81  22 2.81  35 2.81  12 2.81  33 2.81  20 2.81
   7  0.222  0.556  0.579-  35 2.81  44 2.81  25 2.81  18 2.81  11 2.81  22 2.81  36 2.81  10 2.81
                            38 2.81  33 2.81
   8  0.889  0.556  0.579-  38 2.81  15 2.81  42 2.81  34 2.81  20 2.81  39 2.81  35 2.81  23 2.81
                            44 2.81  25 2.81  10 2.81
   9  0.333  0.333  0.657-  44 2.81  35 2.81  22 2.81  18 2.81  20 2.81
  10  0.889  0.889  0.579-  18 2.81   4 2.81  43 2.81  34 2.81  23 2.81  11 2.81  39 2.81  44 2.81
                             7 2.81  33 2.81  12 2.81   8 2.81
  11  0.111  0.778  0.500-  43 2.81  23 2.81  28 2.81  10 2.81  14 2.81   7 2.81  33 2.81  25 2.81
                            30 2.81  19 2.81  36 2.81  16 2.81
  12  0.000  0.000  0.657-  22 2.81  33 2.81   4 2.81   1 2.81  44 2.81  39 2.81  20 2.81   6 2.81
                            10 2.81
  13  0.556  0.556  0.343-  24 2.81  21 2.81  17 2.81   3 2.81  16 2.81   5 2.81  32 2.81  37 2.81
                             2 2.81
  14  0.111  0.111  0.500-  30 2.81  43 2.81  33 2.81  42 2.81  39 2.81  11 2.81  25 2.81  35 2.81
                            45 2.81  28 2.81  31 2.81  40 2.81
  15  0.667  0.667  0.657-   6 2.81  44 2.81  20 2.81   8 2.81  22 2.81   1 2.81  38 2.81  34 2.81
                             4 2.81
  16  0.333  0.667  0.421-  28 2.81   5 2.81  17 2.81  13 2.81  40 2.81  41 2.81  32 2.81   2 2.81
                            19 2.81  30 2.81  36 2.81  11 2.81
  17  0.667  0.333  0.421-  31 2.81  21 2.81  28 2.81  13 2.81  16 2.81   5 2.81   3 2.81  36 2.81
                            42 2.81  26 2.81  41 2.81  43 2.81
  18  0.556  0.222  0.579-  10 2.81  39 2.81  36 2.81  38 2.81   1 2.81  43 2.81   7 2.81   4 2.81
                             9 2.81  45 2.81  34 2.81  35 2.81
  19  1.000  0.667  0.421-  26 2.81   5 2.81  41 2.81  23 2.81   2 2.81  28 2.81  31 2.81  29 2.81
                            24 2.81  16 2.81  11 2.81  25 2.81
  20  1.000  0.333  0.657-   1 2.81  15 2.81   8 2.81  39 2.81  44 2.81  35 2.81  12 2.81   9 2.81
                             6 2.81
  21  0.889  0.222  0.343-  32 2.81   3 2.81  13 2.81  17 2.81  24 2.81  31 2.81  29 2.81  28 2.81
                            27 2.81
  22  0.333  0.667  0.657-  12 2.81  15 2.81   1 2.81  38 2.81   6 2.81   9 2.81  33 2.81   7 2.81
                            44 2.81
  23  0.778  0.778  0.500-  45 2.81  11 2.81  10 2.81  26 2.81  25 2.81  19 2.81  43 2.81   8 2.81
                            34 2.81  30 2.81  42 2.81   5 2.81
  24  0.889  0.556  0.343-  13 2.81   5 2.81  37 2.81  31 2.81  21 2.81  27 2.81  19 2.81   2 2.81
                            29 2.81
  25  0.111  0.444  0.500-  42 2.81  23 2.81  35 2.81  45 2.81   7 2.81  14 2.81   8 2.81  41 2.81
                            11 2.81  36 2.81  31 2.81  19 2.81
  26  0.667  0.000  0.421-  19 2.81  29 2.81  28 2.81  23 2.81   3 2.81   5 2.81  17 2.81  40 2.81
                            43 2.81  41 2.81  45 2.81  37 2.81
  27  0.222  0.222  0.343-  37 2.81   2 2.81  41 2.81  32 2.81  24 2.81  40 2.81  31 2.81   3 2.81
                            21 2.81
  28  0.000  0.000  0.421-  16 2.81  32 2.81  26 2.81  11 2.81  17 2.81  43 2.81  19 2.81  21 2.81
                            31 2.81  40 2.81  14 2.81  29 2.81
  29  0.889  0.889  0.343-   3 2.81  26 2.81  37 2.81  21 2.81  19 2.81   2 2.81  32 2.81  28 2.81
                            24 2.81
  30  0.444  0.778  0.500-  14 2.81  40 2.81  33 2.81  34 2.81  45 2.81  38 2.81  42 2.81  36 2.81
                            23 2.81  11 2.81   5 2.81  16 2.81
  31  1.000  0.333  0.421-  17 2.81   5 2.81  42 2.81  24 2.81  21 2.81  19 2.81  27 2.81  28 2.81
                            41 2.81  25 2.81  14 2.81  40 2.81
  32  0.222  0.889  0.343-  21 2.81  28 2.81  37 2.81  27 2.81  16 2.81  13 2.81  29 2.81  40 2.81
                             2 2.81
  33  0.222  0.889  0.579-  39 2.81  12 2.81  14 2.81  34 2.81  30 2.81  35 2.81  22 2.81  11 2.81
                            38 2.81  10 2.81   6 2.81   7 2.81
  34  0.556  0.889  0.579-  35 2.81   6 2.81  45 2.81  10 2.81   8 2.81  33 2.81  30 2.81  15 2.81
                            23 2.81  18 2.81  38 2.81   4 2.81
  35  0.222  0.222  0.579-  34 2.81  25 2.81   7 2.81   9 2.81  45 2.81  33 2.81   8 2.81   6 2.81
                            20 2.81  14 2.81  18 2.81  39 2.81
  36  0.444  0.444  0.500-  42 2.81  18 2.81  43 2.81  38 2.81  45 2.81   7 2.81  17 2.81  30 2.81
                            25 2.81  41 2.81  16 2.81  11 2.81
  37  0.556  0.889  0.343-  27 2.81  40 2.81  29 2.81  24 2.81  32 2.81   5 2.81   3 2.81  13 2.81
                            26 2.81
  38  0.556  0.556  0.579-   8 2.81  39 2.81   1 2.81  18 2.81  22 2.81  15 2.81  42 2.81  36 2.81
                            30 2.81  33 2.81  34 2.81   7 2.81
  39  0.889  0.222  0.579-  33 2.81  18 2.81  38 2.81   1 2.81  43 2.81  42 2.81   8 2.81  20 2.81
                            14 2.81  10 2.81  12 2.81  35 2.81
  40  0.333  0.000  0.421-   5 2.81  37 2.81  30 2.81  16 2.81  27 2.81  41 2.81  28 2.81  26 2.81
                            45 2.81  32 2.81  31 2.81  14 2.81
  41  0.333  0.333  0.421-   2 2.81  19 2.81  27 2.81  16 2.81   3 2.81  25 2.81  40 2.81  31 2.81
                            17 2.81  36 2.81  45 2.81  26 2.81
  42  0.778  0.444  0.500-  25 2.81  14 2.81   8 2.81  31 2.81  36 2.81  39 2.81  43 2.81  38 2.81
                            17 2.81  30 2.81   5 2.81  23 2.81
  43  0.778  0.111  0.500-  11 2.81  14 2.81  10 2.81  39 2.81  42 2.81  36 2.81  28 2.81  18 2.81
                            23 2.81  45 2.81  26 2.81  17 2.81
  44  1.000  0.667  0.657-   4 2.81  15 2.81   9 2.81   7 2.81  12 2.81  20 2.81  10 2.81   8 2.81
                            22 2.81
  45  0.444  0.111  0.500-  23 2.81  34 2.81  25 2.81  35 2.81  30 2.81  36 2.81  18 2.81  43 2.81
                            14 2.81  40 2.81  41 2.81  26 2.81
 
  LATTYP: Found a hexagonal cell.
 ALAT       =     8.4386069521
 C/A-ratio  =     3.4587225315
  
  Lattice vectors:
  
 A1 = (   4.2193000000,  -7.3080500000,   0.0000000000)
 A2 = (  -8.4386100000,   0.0000000000,   0.0000000000)
 A3 = (   0.0000000000,   0.0000000000, -29.1868000000)


Analysis of symmetry for initial positions (statically):
=====================================================================
 Subroutine PRICEL returns:
 Original cell was already a primitive cell.
 

 Routine SETGRP: Setting up the symmetry group for a 
 hexagonal supercell.


 Subroutine GETGRP returns: Found  1 space group operations
 (whereof  1 operations were pure point group operations)
 out of a pool of 24 trial point group operations.


The static configuration has the point symmetry C_1 .


Analysis of symmetry for dynamics (positions and initial velocities):
=====================================================================
 Subroutine PRICEL returns:
 Original cell was already a primitive cell.
 

 Routine SETGRP: Setting up the symmetry group for a 
 hexagonal supercell.


 Subroutine GETGRP returns: Found  1 space group operations
 (whereof  1 operations were pure point group operations)
 out of a pool of 24 trial point group operations.


The dynamic configuration has the point symmetry C_1 .


 Subroutine INISYM returns: Found  1 space group operations
 (whereof  1 operations are pure point group operations),
 and found     1 'primitive' translations


----------------------------------------------------------------------------------------

                                     Primitive cell                                     

  volume of cell :    1799.9436

  direct lattice vectors                    reciprocal lattice vectors
     8.438610000  0.000000000  0.000000000     0.118502929 -0.068417785  0.000000000
     4.219310000  7.308050000  0.000000000     0.000000000  0.136835408  0.000000000
     0.000000000  0.000000000 29.186800000     0.000000000  0.000000000  0.034262064

  length of vectors
     8.438610000  8.438611952 29.186800000     0.136835439  0.136835408  0.034262064

  position of ions in fractional coordinates (direct lattice)
     0.666666615  0.333333516  0.657379260
     0.222221928  0.555555723  0.342620637
     0.555555600  0.222222344  0.342620637
     0.666666904  0.000000000  0.657379260
     0.666666395  0.666666895  0.421310284
     0.333333452  0.000000000  0.657379260
     0.222221928  0.555555723  0.578689613
     0.888888476  0.555555723  0.578689613
     0.333333163  0.333333516  0.657379260
     0.888888306  0.888889239  0.578689613
     0.111110624  0.777778067  0.499999966
     0.000000000  0.000000000  0.657379260
     0.555555380  0.555555723  0.342620637
     0.111111015  0.111111172  0.499999966
     0.666666395  0.666666895  0.657379260
     0.333333061  0.666666895  0.421310284
     0.666666615  0.333333516  0.421310284
     0.555555600  0.222222344  0.578689613
     0.999999609  0.666666895  0.421310284
     0.999999711  0.333333516  0.657379260
     0.888888696  0.222222344  0.342620637
     0.333333061  0.666666895  0.657379260
     0.777777528  0.777778067  0.499999966
     0.888888476  0.555555723  0.342620637
     0.111110913  0.444444551  0.499999966
     0.666666904  0.000000000  0.421310284
     0.222222148  0.222222344  0.342620637
     0.000000000  0.000000000  0.421310284
     0.888888306  0.888889239  0.342620637
     0.444444076  0.777778067  0.499999966
     0.999999711  0.333333516  0.421310284
     0.222221758  0.888889239  0.342620637
     0.222221758  0.888889239  0.578689613
     0.555555091  0.888889239  0.578689613
     0.222222148  0.222222344  0.578689613
     0.444444365  0.444444551  0.499999966
     0.555555091  0.888889239  0.342620637
     0.555555380  0.555555723  0.578689613
     0.888888696  0.222222344  0.578689613
     0.333333452  0.000000000  0.421310284
     0.333333163  0.333333516  0.421310284
     0.777777698  0.444444551  0.499999966
     0.777777919  0.111111172  0.499999966
     0.999999609  0.666666895  0.657379260
     0.444444467  0.111111172  0.499999966

  ion indices of the primitive-cell ions
   primitive index   ion index
                 1           1
                 2           2
                 3           3
                 4           4
                 5           5
                 6           6
                 7           7
                 8           8
                 9           9
                10          10
                11          11
                12          12
                13          13
                14          14
                15          15
                16          16
                17          17
                18          18
                19          19
                20          20
                21          21
                22          22
                23          23
                24          24
                25          25
                26          26
                27          27
                28          28
                29          29
                30          30
                31          31
                32          32
                33          33
                34          34
                35          35
                36          36
                37          37
                38          38
                39          39
                40          40
                41          41
                42          42
                43          43
                44          44
                45          45

----------------------------------------------------------------------------------------

 
 
 KPOINTS: k-points                                

Automatic generation of k-mesh.
Space group operators:
 irot       det(A)        alpha          n_x          n_y          n_z        tau_x        tau_y        tau_z
    1     1.000000     0.000000     1.000000     0.000000     0.000000     0.000000     0.000000     0.000000
 
 Subroutine IBZKPT returns following result:
 ===========================================
 
 Found      5 irreducible k-points:
 
 Following reciprocal coordinates:
            Coordinates               Weight
  0.000000  0.000000  0.000000      1.000000
  0.333333 -0.000000  0.000000      2.000000
  0.333333  0.333333  0.000000      2.000000
  0.000000  0.333333  0.000000      2.000000
 -0.333333  0.333333  0.000000      2.000000
 
 Following cartesian coordinates:
            Coordinates               Weight
  0.000000  0.000000  0.000000      1.000000
  0.039501 -0.022806  0.000000      2.000000
  0.039501  0.022806  0.000000      2.000000
  0.000000  0.045612  0.000000      2.000000
 -0.039501  0.068418  0.000000      2.000000
 


--------------------------------------------------------------------------------------------------------




 Dimension of arrays:
   k-points           NKPTS =      5   k-points in BZ     NKDIM =      5   number of bands    NBANDS=    288
   number of dos      NEDOS =    301   number of ions     NIONS =     45
   non local maximal  LDIM  =      6   non local SUM 2l+1 LMDIM =     18
   total plane-waves  NPLWV = ******
   max r-space proj   IRMAX =      1   max aug-charges    IRDMAX=  54988
   dimension x,y,z NGX =    80 NGY =   80 NGZ =  252
   dimension x,y,z NGXF=   160 NGYF=  160 NGZF=  504
   support grid    NGXF=   160 NGYF=  160 NGZF=  504
   ions per type =               9   9   9   9   9
   NGX,Y,Z   is equivalent  to a cutoff of  15.76, 15.76, 14.35 a.u.
   NGXF,Y,Z  is equivalent  to a cutoff of  31.52, 31.52, 28.71 a.u.

 SYSTEM =  surface CuPdAgPtAu                      
 POSCAR =  Cu Pd Ag Pt Au                          

 Startparameter for this run:
   NWRITE =      2    write-flag & timer
   PREC   = accura    normal or accurate (medium, high low for compatibility)
   ISTART =      0    job   : 0-new  1-cont  2-samecut
   ICHARG =      2    charge: 1-file 2-atom 10-const
   ISPIN  =      1    spin polarized calculation?
   LNONCOLLINEAR =      F non collinear calculations
   LSORBIT =      F    spin-orbit coupling
   INIWAV =      1    electr: 0-lowe 1-rand  2-diag
   LASPH  =      F    aspherical Exc in radial PAW
   METAGGA=      F    non-selfconsistent MetaGGA calc.

 Electronic Relaxation 1
   ENCUT  =  700.0 eV  51.45 Ry    7.17 a.u.  18.20 18.20 62.96*2*pi/ulx,y,z
   ENINI  =  700.0     initial cutoff
   ENAUG  =  587.0 eV  augmentation charge cutoff
   NELM   =     60;   NELMIN=  2; NELMDL= -5     # of ELM steps 
   EDIFF  = 0.1E-04   stopping-criterion for ELM
   LREAL  =      F    real-space projection
   NLSPLINE    = F    spline interpolate recip. space projectors
   LCOMPAT=      F    compatible to vasp.4.4
   GGA_COMPAT  = T    GGA compatible to vasp.4.4-vasp.4.6
   LMAXPAW     = -100 max onsite density
   LMAXMIX     =    2 max onsite mixed and CHGCAR
   VOSKOWN=      0    Vosko Wilk Nusair interpolation
   ROPT   =    0.00000   0.00000   0.00000   0.00000
   ROPT   =    0.00000
 Ionic relaxation
   EDIFFG = -.5E-01   stopping-criterion for IOM
   NSW    =    300    number of steps for IOM
   NBLOCK =      1;   KBLOCK =    300    inner block; outer block 
   IBRION =      2    ionic relax: 0-MD 1-quasi-New 2-CG
   NFREE  =      1    steps in history (QN), initial steepest desc. (CG)
   ISIF   =      2    stress and relaxation
   IWAVPR =     11    prediction:  0-non 1-charg 2-wave 3-comb
   ISYM   =      2    0-nonsym 1-usesym 2-fastsym
   LCORR  =      T    Harris-Foulkes like correction to forces

   POTIM  = 0.5000    time-step for ionic-motion
   TEIN   =    0.0    initial temperature
   TEBEG  =    0.0;   TEEND  =   0.0 temperature during run
   SMASS  =  -3.00    Nose mass-parameter (am)
   estimated Nose-frequenzy (Omega)   =  0.10E-29 period in steps = 0.13E+47 mass=  -0.163E-26a.u.
   SCALEE = 1.0000    scale energy and forces
   NPACO  =    256;   APACO  = 16.0  distance and # of slots for P.C.
   PSTRESS=    0.0 pullay stress

  Mass of Ions in am
   POMASS =  63.55106.42107.87195.08196.97
  Ionic Valenz
   ZVAL   =  11.00 10.00 11.00 10.00 11.00
  Atomic Wigner-Seitz radii
   RWIGS  =  -1.00 -1.00 -1.00 -1.00 -1.00
  virtual crystal weights 
   VCA    =   1.00  1.00  1.00  1.00  1.00
   NELECT =     477.0000    total number of electrons
   NUPDOWN=      -1.0000    fix difference up-down

 DOS related values:
   EMIN   =  10.00;   EMAX   =-10.00  energy-range for DOS
   EFERMI =   0.00
   ISMEAR =     1;   SIGMA  =   0.03  broadening in eV -4-tet -1-fermi 0-gaus

 Electronic relaxation 2 (details)
   IALGO  =     68    algorithm
   LDIAG  =      T    sub-space diagonalisation (order eigenvalues)
   LSUBROT=      F    optimize rotation matrix (better conditioning)
   TURBO    =      0    0=normal 1=particle mesh
   IRESTART =      0    0=no restart 2=restart with 2 vectors
   NREBOOT  =      0    no. of reboots
   NMIN     =      0    reboot dimension
   EREF     =   0.00    reference energy to select bands
   IMIX   =      4    mixing-type and parameters
     AMIX     =   0.40;   BMIX     =  1.00
     AMIX_MAG =   1.60;   BMIX_MAG =  1.00
     AMIN     =   0.10
     WC   =   100.;   INIMIX=   1;  MIXPRE=   1;  MAXMIX= -45

 Intra band minimization:
   WEIMIN = 0.0010     energy-eigenvalue tresh-hold
   EBREAK =  0.87E-08  absolut break condition
   DEPER  =   0.30     relativ break condition  

   TIME   =   0.40     timestep for ELM

  volume/ion in A,a.u.               =      40.00       269.92
  Fermi-wavevector in a.u.,A,eV,Ry     =   1.051545  1.987132 15.044608  1.105748
  Thomas-Fermi vector in A             =   2.186593
 
 Write flags
   LWAVE        =      F    write WAVECAR
   LDOWNSAMPLE  =      F    k-point downsampling of WAVECAR
   LCHARG       =      F    write CHGCAR
   LVTOT        =      F    write LOCPOT, total local potential
   LVHAR        =      F    write LOCPOT, Hartree potential only
   LELF         =      F    write electronic localiz. function (ELF)
   LORBIT       =      0    0 simple, 1 ext, 2 COOP (PROOUT), +10 PAW based schemes


 Dipole corrections
   LMONO  =      F    monopole corrections only (constant potential shift)
   LDIPOL =      F    correct potential (dipole corrections)
   IDIPOL =      0    1-x, 2-y, 3-z, 4-all directions 
   EPSILON=  1.0000000 bulk dielectric constant

 Exchange correlation treatment:
   GGA     =    RP    GGA type
   LEXCH   =     9    internal setting for exchange type
   VOSKOWN=      0    Vosko Wilk Nusair interpolation
   LHFCALC =     F    Hartree Fock is set to
   LHFONE  =     F    Hartree Fock one center treatment
   AEXX    =    0.0000 exact exchange contribution

 Linear response parameters
   LEPSILON=     F    determine dielectric tensor
   LRPA    =     F    only Hartree local field effects (RPA)
   LNABLA  =     F    use nabla operator in PAW spheres
   LVEL    =     F    velocity operator in full k-point grid
   LINTERFAST=   F  fast interpolation
   KINTER  =     0    interpolate to denser k-point grid
   CSHIFT  =0.1000    complex shift for real part using Kramers Kronig
   OMEGAMAX=  -1.0    maximum frequency
   DEG_THRESHOLD= 0.2000000E-02 threshold for treating states as degnerate
   RTIME   =   -0.100 relaxation time in fs
  (WPLASMAI=    0.000 imaginary part of plasma frequency in eV, 0.658/RTIME)
   DFIELD  = 0.0000000 0.0000000 0.0000000 field for delta impulse in time
 
 Orbital magnetization related:
   ORBITALMAG=     F  switch on orbital magnetization
   LCHIMAG   =     F  perturbation theory with respect to B field
   DQ        =  0.001000  dq finite difference perturbation B field
   LLRAUG    =     F  two centre corrections for induced B field



--------------------------------------------------------------------------------------------------------


 conjugate gradient relaxation of ions
 charge density and potential will be updated during run
 non-spin polarized calculation
 RMM-DIIS sequential band-by-band and
  variant of blocked Davidson during initial phase
 perform sub-space diagonalisation
    before iterative eigenvector-optimisation
 modified Broyden-mixing scheme, WC =      100.0
 initial mixing is a Kerker type mixing with AMIX =  0.4000 and BMIX =      1.0000
 Hartree-type preconditioning will be used
 using additional bands           49
 reciprocal scheme for non local part
 use partial core corrections
 calculate Harris-corrections to forces 
   (improved forces if not selfconsistent)
 use gradient corrections 
 use of overlap-Matrix (Vanderbilt PP)
 Methfessel and Paxton  Order N= 1 SIGMA  =   0.03


--------------------------------------------------------------------------------------------------------


  energy-cutoff  :      700.00
  volume of cell :     1799.94
      direct lattice vectors                 reciprocal lattice vectors
     8.438610000  0.000000000  0.000000000     0.118502929 -0.068417785  0.000000000
     4.219310000  7.308050000  0.000000000     0.000000000  0.136835408  0.000000000
     0.000000000  0.000000000 29.186800000     0.000000000  0.000000000  0.034262064

  length of vectors
     8.438610000  8.438611952 29.186800000     0.136835439  0.136835408  0.034262064


 
 k-points in units of 2pi/SCALE and weight: k-points                                
   0.00000000  0.00000000  0.00000000       0.111
   0.03950098 -0.02280593  0.00000000       0.222
   0.03950098  0.02280587  0.00000000       0.222
   0.00000000  0.04561180  0.00000000       0.222
  -0.03950098  0.06841773  0.00000000       0.222
 
 k-points in reciprocal lattice and weights: k-points                                
   0.00000000  0.00000000  0.00000000       0.111
   0.33333333 -0.00000000  0.00000000       0.222
   0.33333333  0.33333333  0.00000000       0.222
   0.00000000  0.33333333  0.00000000       0.222
  -0.33333333  0.33333333  0.00000000       0.222
 
 position of ions in fractional coordinates (direct lattice) 
   0.66666661  0.33333352  0.65737926
   0.22222193  0.55555572  0.34262064
   0.55555560  0.22222234  0.34262064
   0.66666690  0.00000000  0.65737926
   0.66666639  0.66666689  0.42131028
   0.33333345  0.00000000  0.65737926
   0.22222193  0.55555572  0.57868961
   0.88888848  0.55555572  0.57868961
   0.33333316  0.33333352  0.65737926
   0.88888831  0.88888924  0.57868961
   0.11111062  0.77777807  0.49999997
   0.00000000  0.00000000  0.65737926
   0.55555538  0.55555572  0.34262064
   0.11111101  0.11111117  0.49999997
   0.66666639  0.66666689  0.65737926
   0.33333306  0.66666689  0.42131028
   0.66666661  0.33333352  0.42131028
   0.55555560  0.22222234  0.57868961
   0.99999961  0.66666689  0.42131028
   0.99999971  0.33333352  0.65737926
   0.88888870  0.22222234  0.34262064
   0.33333306  0.66666689  0.65737926
   0.77777753  0.77777807  0.49999997
   0.88888848  0.55555572  0.34262064
   0.11111091  0.44444455  0.49999997
   0.66666690  0.00000000  0.42131028
   0.22222215  0.22222234  0.34262064
   0.00000000  0.00000000  0.42131028
   0.88888831  0.88888924  0.34262064
   0.44444408  0.77777807  0.49999997
   0.99999971  0.33333352  0.42131028
   0.22222176  0.88888924  0.34262064
   0.22222176  0.88888924  0.57868961
   0.55555509  0.88888924  0.57868961
   0.22222215  0.22222234  0.57868961
   0.44444436  0.44444455  0.49999997
   0.55555509  0.88888924  0.34262064
   0.55555538  0.55555572  0.57868961
   0.88888870  0.22222234  0.57868961
   0.33333345  0.00000000  0.42131028
   0.33333316  0.33333352  0.42131028
   0.77777770  0.44444455  0.49999997
   0.77777792  0.11111117  0.49999997
   0.99999961  0.66666689  0.65737926
   0.44444447  0.11111117  0.49999997
 
 position of ions in cartesian coordinates  (Angst):
   7.03217700  2.43601800 19.18679700
   4.21930600  4.06002900 10.00000000
   5.62574200  1.62401200 10.00000000
   5.62574200  0.00000000 19.18679700
   8.43861200  4.87203500 12.29669900
   2.81287100  0.00000000 19.18679700
   4.21930600  4.06002900 16.89009800
   9.84504500  4.06002900 16.89009800
   4.21930600  2.43601800 19.18679700
  11.25148100  6.49604700 16.89009800
   4.21930600  5.68404100 14.59339900
   0.00000000  0.00000000 19.18679700
   7.03217700  4.06002900 10.00000000
   1.40643500  0.81200600 14.59339900
   8.43861200  4.87203500 19.18679700
   5.62574200  4.87203500 12.29669900
   7.03217700  2.43601800 12.29669900
   5.62574200  1.62401200 16.89009800
  11.25148100  4.87203500 12.29669900
   9.84504500  2.43601800 19.18679700
   8.43861000  1.62401200 10.00000000
   5.62574200  4.87203500 19.18679700
   9.84504800  5.68404100 14.59339900
   9.84504500  4.06002900 10.00000000
   2.81287100  3.24802300 14.59339900
   5.62574200  0.00000000 12.29669900
   2.81287100  1.62401200 10.00000000
   0.00000000  0.00000000 12.29669900
  11.25148100  6.49604700 10.00000000
   7.03217700  5.68404100 14.59339900
   9.84504500  2.43601800 12.29669900
   5.62574200  6.49604700 10.00000000
   5.62574200  6.49604700 16.89009800
   8.43861200  6.49604700 16.89009800
   2.81287100  1.62401200 16.89009800
   5.62574200  3.24802300 14.59339900
   8.43861200  6.49604700 10.00000000
   7.03217700  4.06002900 16.89009800
   8.43861000  1.62401200 16.89009800
   2.81287100  0.00000000 12.29669900
   4.21930600  2.43601800 12.29669900
   8.43861200  3.24802300 14.59339900
   7.03217700  0.81200600 14.59339900
  11.25148100  4.87203500 19.18679700
   4.21930600  0.81200600 14.59339900
 


--------------------------------------------------------------------------------------------------------


 k-point   1 :   0.0000 0.0000 0.0000  plane waves:   75725
 k-point   2 :   0.3333-0.0000 0.0000  plane waves:   75720
 k-point   3 :   0.3333 0.3333 0.0000  plane waves:   75720
 k-point   4 :   0.0000 0.3333 0.0000  plane waves:   75720
 k-point   5 :  -0.3333 0.3333 0.0000  plane waves:   75780

 maximum and minimum number of plane-waves per node :     18960    18895

 maximum number of plane-waves:     75780
 maximum index in each direction: 
   IXMAX=   18   IYMAX=   18   IZMAX=   62
   IXMIN=  -18   IYMIN=  -18   IZMIN=  -62


 parallel 3D FFT for wavefunctions:
    minimum data exchange during FFTs selected (reduces bandwidth)
 parallel 3D FFT for charge:
    minimum data exchange during FFTs selected (reduces bandwidth)


 total amount of memory used by VASP MPI-rank0   195082. kBytes
=======================================================================

   base      :      30000. kBytes
   nonl-proj :      81907. kBytes
   fftplans  :      19797. kBytes
   grid      :      35568. kBytes
   one-center:        186. kBytes
   wavefun   :      27624. kBytes
 
     INWAV:  cpu time    0.0001: real time    0.0005
 Broyden mixing: mesh for mixing (old mesh)
   NGX = 37   NGY = 37   NGZ =125
  (NGX  =160   NGY  =160   NGZ  =504)
  gives a total of 171125 points

 initial charge density was supplied:
 charge density of overlapping atoms calculated
 number of electron     477.0000000 magnetization 
 keeping initial charge density in first step


--------------------------------------------------------------------------------------------------------


 Maximum index for augmentation-charges         1893 (set IRDMAX)


--------------------------------------------------------------------------------------------------------


 First call to EWALD:  gamma=   0.146
 Maximum number of real-space cells 4x 4x 1
 Maximum number of reciprocal cells 2x 2x 6

    FEWALD:  cpu time    1.3242: real time    1.3275


--------------------------------------- Iteration      1(   1)  ---------------------------------------


    POTLOK:  cpu time    2.2900: real time    2.3376
    SETDIJ:  cpu time    0.3341: real time    0.3348
     EDDAV:  cpu time  250.7581: real time  251.3730
       DOS:  cpu time    0.9098: real time    0.9352
    --------------------------------------------
      LOOP:  cpu time  254.2920: real time  254.9806

 eigenvalue-minimisations  :  2880
 total energy-change (2. order) : 0.4784120E+04  (-0.2379205E+05)
 number of electron     477.0000000 magnetization 
 augmentation part      477.0000000 magnetization 

 Free energy of the ion-electron system (eV)
  ---------------------------------------------------
  alpha Z        PSCENC =       977.72245613
  Ewald energy   TEWEN  =    263153.62643494
  -Hartree energ DENC   =   -307974.30399812
  -exchange      EXHF   =         0.00000000
  -V(xc)+E(xc)   XCENC  =       195.68079995
  PAW double counting   =     41510.53146135   -40980.86617374
  entropy T*S    EENTRO =        -0.00147486
  eigenvalues    EBANDS =      3896.64688097
  atomic energy  EATOM  =     44005.08338278
  Solvation  Ediel_sol  =         0.00000000
  ---------------------------------------------------
  free energy    TOTEN  =      4784.11976941 eV

  energy without entropy =     4784.12124427  energy(sigma->0) =     4784.12026103


--------------------------------------------------------------------------------------------------------




--------------------------------------- Iteration      1(   2)  ---------------------------------------


     EDDAV:  cpu time  281.6913: real time  282.3798
       DOS:  cpu time    1.8319: real time    1.8363
    --------------------------------------------
      LOOP:  cpu time  283.5232: real time  284.2161

 eigenvalue-minimisations  :  3024
 total energy-change (2. order) :-0.4320445E+04  (-0.3945932E+04)
 number of electron     477.0000000 magnetization 
 augmentation part      477.0000000 magnetization 

 Free energy of the ion-electron system (eV)
  ---------------------------------------------------
  alpha Z        PSCENC =       977.72245613
  Ewald energy   TEWEN  =    263153.62643494
  -Hartree energ DENC   =   -307974.30399812
  -exchange      EXHF   =         0.00000000
  -V(xc)+E(xc)   XCENC  =       195.68079995
  PAW double counting   =     41510.53146135   -40980.86617374
  entropy T*S    EENTRO =         0.00051777
  eigenvalues    EBANDS =      -423.80061101
  atomic energy  EATOM  =     44005.08338278
  Solvation  Ediel_sol  =         0.00000000
  ---------------------------------------------------
  free energy    TOTEN  =       463.67427005 eV

  energy without entropy =      463.67375229  energy(sigma->0) =      463.67409747


--------------------------------------------------------------------------------------------------------




--------------------------------------- Iteration      1(   3)  ---------------------------------------


     EDDAV:  cpu time  311.0201: real time  311.7799
       DOS:  cpu time    1.5627: real time    1.5665
    --------------------------------------------
      LOOP:  cpu time  312.5828: real time  313.3464

 eigenvalue-minimisations  :  3296
 total energy-change (2. order) :-0.5759502E+03  (-0.5007623E+03)
 number of electron     477.0000000 magnetization 
 augmentation part      477.0000000 magnetization 

 Free energy of the ion-electron system (eV)
  ---------------------------------------------------
  alpha Z        PSCENC =       977.72245613
  Ewald energy   TEWEN  =    263153.62643494
  -Hartree energ DENC   =   -307974.30399812
  -exchange      EXHF   =         0.00000000
  -V(xc)+E(xc)   XCENC  =       195.68079995
  PAW double counting   =     41510.53146135   -40980.86617374
  entropy T*S    EENTRO =        -0.00165600
  eigenvalues    EBANDS =      -999.74863575
  atomic energy  EATOM  =     44005.08338278
  Solvation  Ediel_sol  =         0.00000000
  ---------------------------------------------------
  free energy    TOTEN  =      -112.27592845 eV

  energy without entropy =     -112.27427245  energy(sigma->0) =     -112.27537645


--------------------------------------------------------------------------------------------------------




--------------------------------------- Iteration      1(   4)  ---------------------------------------


     EDDAV:  cpu time  375.2549: real time  376.1711
       DOS:  cpu time    1.5059: real time    1.5097
    --------------------------------------------
      LOOP:  cpu time  376.8306: real time  739.7189

 eigenvalue-minimisations  :  4304
 total energy-change (2. order) :-0.6051687E+02  (-0.5630305E+02)
 number of electron     477.0000000 magnetization 
 augmentation part      477.0000000 magnetization 

 Free energy of the ion-electron system (eV)
  ---------------------------------------------------
  alpha Z        PSCENC =       977.72245613
  Ewald energy   TEWEN  =    263153.62643494
  -Hartree energ DENC   =   -307974.30399812
  -exchange      EXHF   =         0.00000000
  -V(xc)+E(xc)   XCENC  =       195.68079995
  PAW double counting   =     41510.53146135   -40980.86617374
  entropy T*S    EENTRO =         0.00118653
  eigenvalues    EBANDS =     -1060.26835038
  atomic energy  EATOM  =     44005.08338278
  Solvation  Ediel_sol  =         0.00000000
  ---------------------------------------------------
  free energy    TOTEN  =      -172.79280055 eV

  energy without entropy =     -172.79398708  energy(sigma->0) =     -172.79319606


--------------------------------------------------------------------------------------------------------




--------------------------------------- Iteration      1(   5)  ---------------------------------------


     EDDAV:  cpu time  382.8143: real time  745.7184
       DOS:  cpu time    1.4526: real time    1.4561
    CHARGE:  cpu time   10.4487: real time   10.4740
    MIXING:  cpu time    0.1972: real time    0.1977
    --------------------------------------------
      LOOP:  cpu time  394.8431: real time  395.8080

 eigenvalue-minimisations  :  4368
 total energy-change (2. order) :-0.1300606E+01  (-0.1296433E+01)
 number of electron     476.9999998 magnetization 
 augmentation part      204.1290245 magnetization 

 Broyden mixing:
  rms(total) = 0.53435E+01    rms(broyden)= 0.53435E+01
  rms(prec ) = 0.54580E+01
  weight for this iteration     100.00

 Free energy of the ion-electron system (eV)
  ---------------------------------------------------
  alpha Z        PSCENC =       977.72245613
  Ewald energy   TEWEN  =    263153.62643494
  -Hartree energ DENC   =   -307974.30399812
  -exchange      EXHF   =         0.00000000
  -V(xc)+E(xc)   XCENC  =       195.68079995
  PAW double counting   =     41510.53146135   -40980.86617374
  entropy T*S    EENTRO =         0.00142233
  eigenvalues    EBANDS =     -1061.56919243
  atomic energy  EATOM  =     44005.08338278
  Solvation  Ediel_sol  =         0.00000000
  ---------------------------------------------------
  free energy    TOTEN  =      -174.09340681 eV

  energy without entropy =     -174.09482913  energy(sigma->0) =     -174.09388092


--------------------------------------------------------------------------------------------------------




--------------------------------------- Iteration      1(   6)  ---------------------------------------


    POTLOK:  cpu time    2.6946: real time    2.7020
    SETDIJ:  cpu time    0.3616: real time    0.3625
    EDDIAG:  cpu time   50.3360: real time   50.4583
  RMM-DIIS:  cpu time  163.7004: real time  164.0992
    ORTHCH:  cpu time   15.7532: real time   15.7914
       DOS:  cpu time    1.6185: real time    1.6225
    CHARGE:  cpu time   10.4429: real time   10.4682
    MIXING:  cpu time    0.2445: real time    0.2453
    --------------------------------------------
      LOOP:  cpu time  245.1518: real time  245.7494

 eigenvalue-minimisations  :  3305
 total energy-change (2. order) :-0.1387965E+02  (-0.2254956E+02)
 number of electron     476.9999995 magnetization 
 augmentation part      211.6549926 magnetization 

 Broyden mixing:
  rms(total) = 0.46195E+01    rms(broyden)= 0.46195E+01
  rms(prec ) = 0.50333E+01
  weight for this iteration     100.00

 eigenvalues of (default mixing * dielectric matrix)
  average eigenvalue GAMMA=   0.6096
  0.6096

 Free energy of the ion-electron system (eV)
  ---------------------------------------------------
  alpha Z        PSCENC =       977.72245613
  Ewald energy   TEWEN  =    263153.62643494
  -Hartree energ DENC   =   -307554.99556353
  -exchange      EXHF   =         0.00000000
  -V(xc)+E(xc)   XCENC  =       173.86551192
  PAW double counting   =     43691.45181765   -43126.82323219
  entropy T*S    EENTRO =         0.00105212
  eigenvalues    EBANDS =     -1507.90491939
  atomic energy  EATOM  =     44005.08338278
  Solvation  Ediel_sol  =         0.00000000
  ---------------------------------------------------
  free energy    TOTEN  =      -187.97305956 eV

  energy without entropy =     -187.97411168  energy(sigma->0) =     -187.97341026


--------------------------------------------------------------------------------------------------------




--------------------------------------- Iteration      1(   7)  ---------------------------------------


    POTLOK:  cpu time    2.6142: real time    2.6210
    SETDIJ:  cpu time    0.3024: real time    0.3031
    EDDIAG:  cpu time   50.3771: real time   50.5005
  RMM-DIIS:  cpu time  146.2057: real time  146.5604
    ORTHCH:  cpu time   17.6283: real time   17.6715
       DOS:  cpu time    1.7399: real time    1.7441
    CHARGE:  cpu time   11.2450: real time   11.2722
    MIXING:  cpu time    0.2561: real time    0.2567
    --------------------------------------------
      LOOP:  cpu time  230.3686: real time  230.9293

 eigenvalue-minimisations  :  2901
 total energy-change (2. order) :-0.1933393E+01  (-0.9180316E+01)
 number of electron     476.9999997 magnetization 
 augmentation part      208.8641974 magnetization 

 Broyden mixing:
  rms(total) = 0.49663E+01    rms(broyden)= 0.49662E+01
  rms(prec ) = 0.66225E+01
  weight for this iteration     100.00

 eigenvalues of (default mixing * dielectric matrix)
  average eigenvalue GAMMA=   0.4885
  0.7161  0.2609

 Free energy of the ion-electron system (eV)
  ---------------------------------------------------
  alpha Z        PSCENC =       977.72245613
  Ewald energy   TEWEN  =    263153.62643494
  -Hartree energ DENC   =   -307489.57670958
  -exchange      EXHF   =         0.00000000
  -V(xc)+E(xc)   XCENC  =       177.71347970
  PAW double counting   =     44625.43019804   -44151.27066407
  entropy T*S    EENTRO =        -0.00076792
  eigenvalues    EBANDS =     -1488.63426282
  atomic energy  EATOM  =     44005.08338278
  Solvation  Ediel_sol  =         0.00000000
  ---------------------------------------------------
  free energy    TOTEN  =      -189.90645280 eV

  energy without entropy =     -189.90568488  energy(sigma->0) =     -189.90619683


--------------------------------------------------------------------------------------------------------




--------------------------------------- Iteration      1(   8)  ---------------------------------------


    POTLOK:  cpu time    2.1359: real time    2.1429
    SETDIJ:  cpu time    0.3520: real time    0.3528
    EDDIAG:  cpu time   49.5702: real time   49.6911
  RMM-DIIS:  cpu time  162.7184: real time  163.1136
    ORTHCH:  cpu time   16.7518: real time   16.7927
       DOS:  cpu time    1.5743: real time    1.5781
    CHARGE:  cpu time    9.5290: real time    9.5521
    MIXING:  cpu time    0.1322: real time    0.1325
    --------------------------------------------
      LOOP:  cpu time  242.7637: real time  243.3558

 eigenvalue-minimisations  :  3251
 total energy-change (2. order) : 0.2167734E+02  (-0.2771646E+01)
 number of electron     476.9999997 magnetization 
 augmentation part      213.5803274 magnetization 

 Broyden mixing:
  rms(total) = 0.28124E+01    rms(broyden)= 0.28124E+01
  rms(prec ) = 0.32873E+01
  weight for this iteration     100.00

 eigenvalues of (default mixing * dielectric matrix)
  average eigenvalue GAMMA=   0.6889
  1.4579  0.4379  0.1709

 Free energy of the ion-electron system (eV)
  ---------------------------------------------------
  alpha Z        PSCENC =       977.72245613
  Ewald energy   TEWEN  =    263153.62643494
  -Hartree energ DENC   =   -307536.09137282
  -exchange      EXHF   =         0.00000000
  -V(xc)+E(xc)   XCENC  =       177.34720842
  PAW double counting   =     45016.15156371   -44561.13020061
  entropy T*S    EENTRO =        -0.00035404
  eigenvalues    EBANDS =     -1400.93822642
  atomic energy  EATOM  =     44005.08338278
  Solvation  Ediel_sol  =         0.00000000
  ---------------------------------------------------
  free energy    TOTEN  =      -168.22910790 eV

  energy without entropy =     -168.22875387  energy(sigma->0) =     -168.22898989


--------------------------------------------------------------------------------------------------------




--------------------------------------- Iteration      1(   9)  ---------------------------------------


    POTLOK:  cpu time    2.2829: real time    2.2888
    SETDIJ:  cpu time    0.3339: real time    0.3351
    EDDIAG:  cpu time   51.9229: real time   52.0490
  RMM-DIIS:  cpu time  176.0612: real time  176.4902
    ORTHCH:  cpu time   15.8603: real time   15.8994
       DOS:  cpu time    1.5095: real time    1.5131
    CHARGE:  cpu time   10.3846: real time   10.4098
    MIXING:  cpu time    0.2919: real time    0.2928
    --------------------------------------------
      LOOP:  cpu time  258.6472: real time  259.2782

 eigenvalue-minimisations  :  3667
 total energy-change (2. order) :-0.8618450E+01  (-0.3662550E+01)
 number of electron     476.9999999 magnetization 
 augmentation part      209.4646563 magnetization 

 Broyden mixing:
  rms(total) = 0.50717E+01    rms(broyden)= 0.50717E+01
  rms(prec ) = 0.56758E+01
  weight for this iteration     100.00

 eigenvalues of (default mixing * dielectric matrix)
  average eigenvalue GAMMA=   0.6658
  1.8792  0.3156  0.3156  0.1525

 Free energy of the ion-electron system (eV)
  ---------------------------------------------------
  alpha Z        PSCENC =       977.72245613
  Ewald energy   TEWEN  =    263153.62643494
  -Hartree energ DENC   =   -307627.46670065
  -exchange      EXHF   =         0.00000000
  -V(xc)+E(xc)   XCENC  =       176.72698397
  PAW double counting   =     46318.66106822   -45896.25238908
  entropy T*S    EENTRO =         0.00071600
  eigenvalues    EBANDS =     -1284.94951063
  atomic energy  EATOM  =     44005.08338278
  Solvation  Ediel_sol  =         0.00000000
  ---------------------------------------------------
  free energy    TOTEN  =      -176.84755832 eV

  energy without entropy =     -176.84827431  energy(sigma->0) =     -176.84779698


--------------------------------------------------------------------------------------------------------




--------------------------------------- Iteration      1(  10)  ---------------------------------------


    POTLOK:  cpu time    2.5716: real time    2.5786
    SETDIJ:  cpu time    0.3083: real time    0.3091
    EDDIAG:  cpu time   49.0959: real time   49.2154
  RMM-DIIS:  cpu time  141.6384: real time  141.9838
    ORTHCH:  cpu time   16.1747: real time   16.2141
       DOS:  cpu time    1.9017: real time    1.9063
    CHARGE:  cpu time   10.1114: real time   10.1358
    MIXING:  cpu time    0.3076: real time    0.3084
    --------------------------------------------
      LOOP:  cpu time  222.1095: real time  222.6516

 eigenvalue-minimisations  :  2973
 total energy-change (2. order) : 0.1133685E+02  (-0.2848149E+01)
 number of electron     476.9999997 magnetization 
 augmentation part      215.0352065 magnetization 

 Broyden mixing:
  rms(total) = 0.20741E+01    rms(broyden)= 0.20741E+01
  rms(prec ) = 0.22015E+01
  weight for this iteration     100.00

 eigenvalues of (default mixing * dielectric matrix)
  average eigenvalue GAMMA=   0.6425
  1.9970  0.4527  0.3087  0.3087  0.1452

 Free energy of the ion-electron system (eV)
  ---------------------------------------------------
  alpha Z        PSCENC =       977.72245613
  Ewald energy   TEWEN  =    263153.62643494
  -Hartree energ DENC   =   -307518.56192339
  -exchange      EXHF   =         0.00000000
  -V(xc)+E(xc)   XCENC  =       174.35201972
  PAW double counting   =     46878.50660354   -46459.70091135
  entropy T*S    EENTRO =        -0.00266147
  eigenvalues    EBANDS =     -1376.53610511
  atomic energy  EATOM  =     44005.08338278
  Solvation  Ediel_sol  =         0.00000000
  ---------------------------------------------------
  free energy    TOTEN  =      -165.51070420 eV

  energy without entropy =     -165.50804273  energy(sigma->0) =     -165.50981704


--------------------------------------------------------------------------------------------------------




--------------------------------------- Iteration      1(  11)  ---------------------------------------


    POTLOK:  cpu time    2.3750: real time    2.3815
    SETDIJ:  cpu time    0.3789: real time    0.3798
    EDDIAG:  cpu time   51.7613: real time   51.8871
  RMM-DIIS:  cpu time  148.5422: real time  148.9046
    ORTHCH:  cpu time   15.1203: real time   15.1576
       DOS:  cpu time    1.2651: real time    1.2683
    CHARGE:  cpu time   10.5233: real time   10.5487
    MIXING:  cpu time    0.2737: real time    0.2744
    --------------------------------------------
      LOOP:  cpu time  230.2399: real time  230.8020

 eigenvalue-minimisations  :  2999
 total energy-change (2. order) : 0.6196692E+01  (-0.1240308E+01)
 number of electron     476.9999997 magnetization 
 augmentation part      215.3792189 magnetization 

 Broyden mixing:
  rms(total) = 0.10750E+01    rms(broyden)= 0.10750E+01
  rms(prec ) = 0.12588E+01
[...]
    276       5.5533      0.00000
    277       5.5906      0.00000
    278       5.6249      0.00000
    279       5.7204      0.00000
    280       5.8440      0.00000
    281       5.9629      0.00000
    282       6.0138      0.00000
    283       6.0477      0.00000
    284       6.0653      0.00000
    285       6.1472      0.00000
    286       6.2852      0.00000
    287       6.3480      0.00000
    288       6.4060      0.00000


--------------------------------------------------------------------------------------------------------


 soft charge-density along one line, spin component           1
         0         1         2         3         4         5         6         7         8         9
 total charge-density along one line
 
 pseudopotential strength for first ion, spin component:           1
 -7.398   0.006  -0.005  -0.004   0.000  -1.335  -0.004   0.004
  0.006  -7.364   0.001   0.004  -0.003  -0.004  -1.362  -0.001
 -0.005   0.001  -7.361   0.002   0.004   0.004  -0.001  -1.366
 -0.004   0.004   0.002  -7.374   0.005   0.003  -0.003  -0.002
  0.000  -0.003   0.004   0.005  -7.396  -0.000   0.002  -0.003
 -1.335  -0.004   0.004   0.003  -0.000   7.952   0.003  -0.003
 -0.004  -1.362  -0.001  -0.003   0.002   0.003   7.973   0.001
  0.004  -0.001  -1.366  -0.002  -0.003  -0.003   0.001   7.976
  0.003  -0.003  -0.002  -1.355  -0.004  -0.003   0.002   0.001
 -0.000   0.002  -0.003  -0.004  -1.337   0.000  -0.002   0.002
 -0.001   0.000  -0.006  -0.001   0.001   0.000   0.000   0.003
 -0.002   0.000  -0.011  -0.002   0.001   0.000   0.000   0.006
 -0.001   0.015  -0.002  -0.000  -0.004   0.001  -0.013   0.001
 -0.000   0.004   0.015  -0.001  -0.000   0.000  -0.002  -0.013
  0.004  -0.000   0.000   0.015  -0.001  -0.003   0.000  -0.001
 -0.001   0.018  -0.003  -0.000  -0.005   0.001  -0.016   0.002
 -0.000   0.005   0.019  -0.001  -0.000   0.000  -0.002  -0.015
  0.005  -0.000   0.001   0.018  -0.002  -0.003   0.000  -0.001
 total augmentation occupancy for first ion, spin component:           1
  1.910   0.002  -0.001  -0.007   0.002  -0.026  -0.001   0.001   0.004  -0.000  -0.006   0.000  -0.005  -0.005  -0.008   0.002
  0.002   1.931   0.003   0.001  -0.006  -0.001  -0.034  -0.000  -0.000   0.004  -0.000  -0.000  -0.002  -0.004  -0.003   0.011
 -0.001   0.003   1.934  -0.000  -0.000   0.001  -0.000  -0.034   0.000   0.000   0.013   0.007   0.004  -0.039   0.006  -0.003
 -0.007   0.001  -0.000   1.929   0.001   0.004  -0.000   0.000  -0.031  -0.000  -0.001  -0.002  -0.003  -0.007  -0.005   0.000
  0.002  -0.006  -0.000   0.001   1.917  -0.000   0.004   0.000  -0.000  -0.027   0.006   0.001   0.004  -0.001  -0.012  -0.004
 -0.026  -0.001   0.001   0.004  -0.000   0.010   0.000   0.000   0.001   0.000  -0.004   0.001  -0.000   0.000  -0.006   0.000
 -0.001  -0.034  -0.000  -0.000   0.004   0.000   0.009  -0.000  -0.000   0.001   0.001   0.000  -0.014   0.000  -0.001   0.001
  0.001  -0.000  -0.034   0.000   0.000   0.000  -0.000   0.011  -0.000   0.000  -0.021  -0.000   0.002  -0.022   0.001  -0.000
  0.004  -0.000   0.000  -0.031  -0.000   0.001  -0.000  -0.000   0.009   0.001   0.001   0.001  -0.001   0.002  -0.015  -0.000
 -0.000   0.004   0.000  -0.000  -0.027   0.000   0.001   0.000   0.001   0.010  -0.001  -0.000  -0.002  -0.000  -0.001   0.000
 -0.006  -0.000   0.013  -0.001   0.006  -0.004   0.001  -0.021   0.001  -0.001   1.423  -0.111  -0.021  -0.116  -0.014   0.002
  0.000  -0.000   0.007  -0.002   0.001   0.001   0.000  -0.000   0.001  -0.000  -0.111   0.012  -0.000   0.020  -0.000   0.000
 -0.005  -0.002   0.004  -0.003   0.004  -0.000  -0.014   0.002  -0.001  -0.002  -0.021  -0.000   0.142  -0.001  -0.003  -0.009
 -0.005  -0.004  -0.039  -0.007  -0.001   0.000   0.000  -0.022   0.002  -0.000  -0.116   0.020  -0.001   0.107   0.001   0.000
 -0.008  -0.003   0.006  -0.005  -0.012  -0.006  -0.001   0.001  -0.015  -0.001  -0.014  -0.000  -0.003   0.001   0.140   0.000
  0.002   0.011  -0.003   0.000  -0.004   0.000   0.001  -0.000  -0.000   0.000   0.002   0.000  -0.009   0.000   0.000   0.001
  0.000   0.004   0.016   0.002   0.000  -0.000  -0.000   0.001  -0.000  -0.000   0.018  -0.002   0.000  -0.007   0.000  -0.000
  0.005   0.000  -0.002   0.011   0.003   0.000  -0.000  -0.000   0.001  -0.000   0.001   0.000   0.000   0.000  -0.009  -0.000


------------------------ aborting loop because EDIFF is reached ----------------------------------------


    CHARGE:  cpu time   11.3705: real time   11.3982
    FORLOC:  cpu time    1.0153: real time    1.0178
    FORNL :  cpu time  201.7018: real time  202.1927
    STRESS:  cpu time  290.0119: real time  290.7441
    FORCOR:  cpu time    3.5726: real time    3.5814
    FORHAR:  cpu time    1.4976: real time    1.5012
    MIXING:  cpu time    0.4465: real time    0.4476
    OFIELD:  cpu time    0.0001: real time    0.0001

  FORCE on cell =-STRESS in cart. coord.  units (eV):
  Direction    XX          YY          ZZ          XY          YZ          ZX
  --------------------------------------------------------------------------------------
  Alpha Z   977.72246   977.72246   977.72246
  Ewald  279894.01001279870.49992************    -8.68130    11.96839    12.14662
  Hartree291336.34761291316.00915************    -9.76265     5.47319     6.89252
  E(xc)   -2417.89486 -2418.11754 -2429.73211     0.02526    -0.09027     0.02996
  Local  ************************585827.20130    19.95400   -17.29147   -18.21391
  n-local  -319.38533  -318.44377  -330.73978    -1.21415     0.21128     0.35789
  augment  3411.53178  3412.28035  3448.99304     0.07970    -0.08629    -0.36906
  Kinetic  5930.20086  5933.13244  6011.40207    -0.71841    -0.45101    -0.62527
  Fock        0.00000     0.00000     0.00000     0.00000     0.00000     0.00000
  -------------------------------------------------------------------------------------
  Total      -5.61185    -6.15615     0.96154    -0.31756    -0.26618     0.21874
  in kB      -4.99526    -5.47975     0.85589    -0.28267    -0.23693     0.19471
  external pressure =       -3.21 kB  Pullay stress =        0.00 kB


 VOLUME and BASIS-vectors are now :
 -----------------------------------------------------------------------------
  energy-cutoff  :      700.00
  volume of cell :     1799.94
      direct lattice vectors                 reciprocal lattice vectors
     8.438610000  0.000000000  0.000000000     0.118502929 -0.068417785  0.000000000
     4.219310000  7.308050000  0.000000000     0.000000000  0.136835408  0.000000000
     0.000000000  0.000000000 29.186800000     0.000000000  0.000000000  0.034262064

  length of vectors
     8.438610000  8.438611952 29.186800000     0.136835439  0.136835408  0.034262064


 FORCES acting on ions
    electron-ion (+dipol)            ewald-force                    non-local-force                 convergence-correction
 -----------------------------------------------------------------------------------------------
   -.507E+02 -.228E+02 -.361E+04   0.498E+02 0.215E+02 0.361E+04   0.856E+00 0.126E+01 0.227E+01   0.496E-02 0.744E-02 -.288E-02
   0.179E+02 0.975E+01 0.358E+04   -.161E+02 -.797E+01 -.358E+04   -.177E+01 -.178E+01 -.184E+01   -.240E-02 -.254E-02 -.342E-02
   0.516E+01 0.107E+01 0.359E+04   -.368E+01 -.538E+00 -.359E+04   -.147E+01 -.532E+00 -.218E+01   0.824E-03 0.128E-02 0.215E-02
   -.159E+02 0.369E+02 -.359E+04   0.158E+02 -.367E+02 0.358E+04   0.678E-01 -.238E+00 0.389E+01   0.514E-03 -.372E-02 -.119E-02
   -.163E+02 -.263E+02 0.183E+04   0.150E+02 0.243E+02 -.183E+04   0.127E+01 0.197E+01 -.762E+00   0.356E-02 0.420E-03 -.305E-02
   0.358E+02 0.239E+02 -.357E+04   -.360E+02 -.244E+02 0.357E+04   0.130E+00 0.522E+00 0.375E+01   0.825E-03 -.374E-03 -.350E-02
   -.312E+02 -.434E+02 -.176E+04   0.307E+02 0.431E+02 0.176E+04   0.549E+00 0.321E+00 0.167E+01   -.503E-02 -.473E-02 -.415E-02
   0.397E+02 0.103E+02 -.186E+04   -.387E+02 -.977E+01 0.186E+04   -.950E+00 -.546E+00 -.610E+00   -.193E-02 -.283E-02 -.338E-02
   0.160E+02 -.520E+01 -.360E+04   -.159E+02 0.427E+01 0.359E+04   -.671E-01 0.921E+00 0.391E+01   -.510E-02 0.344E-02 -.146E-02
   -.310E+02 -.405E+02 -.161E+04   0.311E+02 0.402E+02 0.161E+04   -.265E-02 0.370E+00 0.222E-01   -.346E-02 -.268E-02 0.427E-03
   -.112E+02 -.359E+02 0.131E+02   0.119E+02 0.357E+02 -.127E+02   -.652E+00 0.170E+00 -.398E+00   -.430E-04 -.222E-02 -.481E-02
   -.220E+02 0.187E+02 -.332E+04   0.219E+02 -.188E+02 0.331E+04   0.285E-01 0.107E-01 0.259E+01   -.162E-03 -.174E-02 0.495E-02
   -.310E+02 -.128E+02 0.329E+04   0.300E+02 0.129E+02 -.328E+04   0.993E+00 -.105E+00 -.234E+01   0.256E-02 -.103E-02 -.108E-01
   0.136E+01 0.109E+02 0.192E+02   -.158E+01 -.113E+02 -.194E+02   0.199E+00 0.399E+00 0.150E+00   0.572E-03 0.318E-02 -.233E-02
   0.143E+02 0.149E+02 -.333E+04   -.141E+02 -.142E+02 0.333E+04   -.108E+00 -.689E+00 0.255E+01   0.326E-02 -.568E-02 0.543E-02
   0.148E+02 -.295E+02 0.158E+04   -.143E+02 0.292E+02 -.158E+04   -.416E+00 0.246E+00 -.313E+00   -.393E-02 -.133E-03 -.181E-02
   -.154E+02 0.305E+02 0.165E+04   0.157E+02 -.301E+02 -.165E+04   -.355E+00 -.471E+00 0.650E+00   -.171E-02 -.308E-02 -.731E-02
   -.320E+02 0.240E+02 -.155E+04   0.313E+02 -.239E+02 0.155E+04   0.718E+00 -.769E-01 -.610E+00   0.143E-02 0.157E-02 0.217E-02
   -.572E+01 -.633E+01 0.179E+04   0.581E+01 0.633E+01 -.179E+04   -.106E+00 0.989E-02 -.424E-01   0.211E-02 -.702E-03 -.315E-02
   0.279E+02 0.517E+01 -.378E+04   -.278E+02 -.532E+01 0.378E+04   -.117E+00 0.146E+00 0.223E+01   -.149E-02 0.817E-02 -.185E-02
   -.376E+02 0.430E+01 0.368E+04   0.369E+02 -.462E+01 -.368E+04   0.667E+00 0.332E+00 -.219E+01   -.783E-03 0.142E-03 -.410E-02
   -.114E+02 -.394E+02 -.374E+04   0.115E+02 0.398E+02 0.374E+04   -.756E-01 -.447E+00 0.211E+01   0.528E-03 -.298E-02 0.162E-02
   0.210E+01 -.268E+02 -.531E+01   -.205E+01 0.267E+02 0.626E+01   -.457E-01 0.217E-01 -.927E+00   0.315E-02 -.235E-02 -.267E-02
   0.138E+02 0.131E+02 0.366E+04   -.136E+02 -.128E+02 -.366E+04   -.145E+00 -.275E+00 -.182E+01   -.556E-03 -.789E-03 -.407E-02
   0.741E+00 0.323E+02 0.872E+01   -.490E+00 -.322E+02 -.802E+01   -.257E+00 -.315E-01 -.673E+00   0.585E-03 0.486E-03 -.194E-02
   -.150E+01 0.125E+01 0.182E+04   0.240E+01 -.110E+01 -.182E+04   -.896E+00 -.168E+00 0.648E+00   0.318E-03 0.258E-02 -.307E-02
   0.371E+02 0.176E+02 0.367E+04   -.373E+02 -.176E+02 -.367E+04   0.222E+00 -.166E-01 -.199E+01   -.107E-02 0.564E-04 -.257E-02
   -.180E+02 -.107E+02 0.165E+04   0.180E+02 0.110E+02 -.165E+04   -.359E-01 -.381E+00 -.338E+00   0.195E-03 0.150E-03 -.371E-02
   -.529E+01 -.248E+01 0.329E+04   0.580E+01 0.242E+01 -.329E+04   -.492E+00 0.636E-01 -.161E+01   -.768E-03 -.813E-03 -.681E-02
   0.112E+02 -.222E+02 -.183E+02   -.117E+02 0.220E+02 0.183E+02   0.472E+00 0.138E+00 0.509E-01   -.192E-02 -.146E-03 -.253E-02
   -.208E+02 0.467E+02 0.168E+04   0.200E+02 -.461E+02 -.168E+04   0.725E+00 -.552E+00 -.326E+00   0.364E-02 -.143E-02 -.490E-02
   -.245E+02 -.433E+02 0.326E+04   0.236E+02 0.424E+02 -.326E+04   0.919E+00 0.982E+00 -.119E+01   0.310E-03 -.115E-03 -.697E-02
   0.163E+02 -.116E+02 -.162E+04   -.165E+02 0.117E+02 0.162E+04   0.190E+00 -.163E+00 -.132E+00   0.427E-03 0.103E-02 -.162E-02
   0.165E+02 0.113E+02 -.159E+04   -.160E+02 -.111E+02 0.159E+04   -.428E+00 -.132E+00 -.102E+01   0.247E-02 -.292E-02 0.147E-02
   0.446E+02 0.408E+02 -.163E+04   -.442E+02 -.399E+02 0.163E+04   -.378E+00 -.855E+00 -.622E+00   -.265E-02 0.510E-02 -.549E-03
   -.132E+02 0.175E+02 0.261E+02   0.129E+02 -.168E+02 -.261E+02   0.319E+00 -.766E+00 -.915E-01   -.279E-02 0.453E-03 -.189E-02
   0.275E+02 0.125E+02 0.369E+04   -.270E+02 -.124E+02 -.369E+04   -.469E+00 -.184E-01 -.695E-01   -.296E-03 -.124E-02 -.544E-02
   -.109E+02 -.232E+02 -.181E+04   0.107E+02 0.232E+02 0.181E+04   0.229E+00 -.119E-01 -.633E+00   0.482E-02 -.397E-02 0.219E-02
   -.913E+01 0.335E+02 -.180E+04   0.962E+01 -.338E+02 0.180E+04   -.521E+00 0.337E+00 -.780E+00   0.176E-02 0.683E-02 -.203E-02
   0.252E+02 -.357E+02 0.181E+04   -.256E+02 0.350E+02 -.181E+04   0.414E+00 0.652E+00 -.544E+00   0.175E-02 0.441E-02 -.401E-02
   0.359E+02 0.254E+02 0.182E+04   -.354E+02 -.248E+02 -.182E+04   -.478E+00 -.642E+00 0.667E+00   -.383E-03 0.490E-03 -.372E-02
   0.151E+02 0.338E+02 0.299E+02   -.146E+02 -.336E+02 -.309E+02   -.532E+00 -.147E+00 0.930E+00   0.318E-02 -.255E-02 0.281E-02
   -.136E+02 -.533E+01 0.294E+02   0.139E+02 0.479E+01 -.299E+02   -.359E+00 0.535E+00 0.468E+00   0.208E-02 -.326E-03 -.186E-02
   0.804E+00 -.349E+02 -.368E+04   -.824E+00 0.348E+02 0.368E+04   0.488E-01 0.102E+00 0.586E+00   -.487E-02 -.262E-02 0.510E-03
   0.110E+02 0.147E+01 0.696E+01   -.111E+02 -.155E+01 -.637E+01   0.128E+00 0.725E-01 -.551E+00   -.142E-02 0.293E-02 -.461E-02
 -----------------------------------------------------------------------------------------------
   0.198E+01 -.539E+00 -.443E+01   -.222E-12 0.181E-12 0.561E-11   -.198E+01 0.543E+00 0.453E+01   0.307E-02 -.355E-02 -.100E+00
 
 
 POSITION                                       TOTAL-FORCE (eV/Angst)
 -----------------------------------------------------------------------------------
      6.97443      2.36172     19.17831        -0.002583     -0.010236      0.007416
      4.27735      4.15819      9.98715         0.026975      0.005430     -0.038710
      5.67840      1.61583      9.95609         0.010828      0.002741     -0.038673
      5.61601      0.01079     19.11996        -0.008173      0.002654      0.018576
      8.36408      4.78184     12.23439        -0.012121      0.003092     -0.005323
      2.82864     -0.00901     19.11856         0.013277      0.001253      0.021241
      4.21875      4.07339     16.94555        -0.005359      0.008560      0.001397
      9.87294      4.07651     17.06283         0.011542      0.000333     -0.001454
      4.25996      2.41366     19.12426         0.004804     -0.003860      0.017123
     11.25133      6.43072     16.98611         0.003028     -0.005873      0.003098
      4.24762      5.68325     14.64066        -0.017574      0.009797      0.009425
     -0.05851     -0.00601     19.30085         0.002757     -0.002840     -0.005995
      6.95600      4.07666      9.92499        -0.000954      0.000052     -0.032420
      1.40144      0.81881     14.60743        -0.019434     -0.000825      0.006291
      8.47376      4.91120     19.28447         0.020608     -0.015221     -0.002902
      5.64160      4.85069     12.28904         0.003464     -0.013815      0.019545
      7.03391      2.44227     12.17433        -0.017642      0.005362     -0.011230
      5.60744      1.64446     16.98830         0.008629      0.006170      0.013436
     11.21149      4.87115     12.24040        -0.010517      0.007790      0.026971
      1.41837      2.38392     19.53176         0.017793      0.004508     -0.016150
      8.40566      1.62827      9.71736         0.012936      0.003277      0.004264
      5.64982      4.83539     19.46751         0.001786      0.003978      0.001968
      9.83002      5.68025     14.64250         0.005854     -0.023036      0.019888
      9.87062      4.08393      9.78134         0.005464      0.003973     -0.018014
      2.80735      3.27107     14.67706        -0.004966      0.021960      0.025571
      5.60264     -0.03694     12.18394         0.009187     -0.014392     -0.016365
      2.87976      1.64608      9.73927        -0.005467      0.002234     -0.005712
      0.00636      0.01879     12.20301        -0.019087     -0.015711     -0.007012
     11.28923      6.50362      9.87981         0.016256      0.004933     -0.030664
      7.00437      5.68789     14.63909        -0.003254     -0.018449     -0.000356
      9.79461      2.44740     12.19155        -0.007852     -0.005088     -0.003522
      5.58467      6.44898      9.92816        -0.004648      0.009869     -0.021726
      5.62985      6.50453     16.99166        -0.023082     -0.020137     -0.002983
      8.43341      6.51292     17.00622         0.017063     -0.005009      0.017069
      2.82550      1.70036     17.06060         0.013073      0.013704      0.026947
      5.62322      3.28449     14.61280         0.001514     -0.001014     -0.002084
      8.46151      6.49385      9.71832        -0.002922      0.011783     -0.007714
      7.01452      4.07340     17.02816        -0.001014      0.004920     -0.010259
      8.48525      1.64980     17.03017        -0.033553      0.005848     -0.002718
      2.81040     -0.06017     12.23944        -0.020244     -0.001872     -0.013725
      4.22363      2.46494     12.15590         0.004909      0.003865     -0.011452
      8.44394      3.27492     14.56698        -0.016550      0.027751     -0.000814
      7.04481      0.80524     14.58195         0.008518      0.001380      0.022488
      2.83440      4.81669     19.33416         0.024096     -0.013138      0.008506
      4.20503      0.83528     14.63055        -0.007366     -0.006701      0.036755
 -----------------------------------------------------------------------------------
    total drift:                               -0.001326      0.000197      0.000014


--------------------------------------------------------------------------------------------------------



  FREE ENERGIE OF THE ION-ELECTRON SYSTEM (eV)
  ---------------------------------------------------
  free  energy   TOTEN  =      -158.51104512 eV

  energy  without entropy=     -158.50931010  energy(sigma->0) =     -158.51046678
 
 d Force = 0.7372656E-02[ 0.308E-02, 0.117E-01]  d Energy = 0.7142029E-02 0.231E-03
 d Force = 0.5761539E+03[ 0.576E+03, 0.577E+03]  d Ewald  = 0.5761540E+03-0.736E-04


--------------------------------------------------------------------------------------------------------


    POTLOK:  cpu time    3.2365: real time    3.2443


--------------------------------------------------------------------------------------------------------


 stress matrix after NEB project (eV)
     -5.61185     -0.31756      0.21874
     -0.31756     -6.15615     -0.26618
      0.21874     -0.26618      0.96154
  FORCES: max atom, RMS     0.047493    0.024273
  FORCE total and by dimension    0.162826    0.038710
  Stress total and by dimension    8.411584    6.156152
 Conjugate gradient step on ions:
 trial-energy change:   -0.007142  1 .order   -0.007373   -0.011664   -0.003081
  (g-gl).g = 0.504E-02      g.g   = 0.504E-02  gl.gl    = 0.132E-01
 g(Force)  = 0.504E-02   g(Stress)= 0.000E+00 ortho     = 0.102E-03
 gamma     =   0.38284
 trial     =   2.29455
 opt step  =   3.37429  (harmonic =   3.11830) maximal distance =0.01476672
 next E    =  -158.511746   (d E  =  -0.00784)


--------------------------------------------------------------------------------------------------------


  
 reached required accuracy - stopping structural energy minimisation
     LOOP+:  cpu time 3777.1584: real time 3787.5887
    4ORBIT:  cpu time    0.0000: real time    0.0000

 total amount of memory used by VASP MPI-rank0   195082. kBytes
=======================================================================

   base      :      30000. kBytes
   nonl-proj :      81907. kBytes
   fftplans  :      19797. kBytes
   grid      :      35568. kBytes
   one-center:        186. kBytes
   wavefun   :      27624. kBytes
 
  
  
 General timing and accounting informations for this job:
 ========================================================
  
                  Total CPU time used (sec):    45989.996
                            User time (sec):    45949.791
                          System time (sec):       40.207
                         Elapsed time (sec):    48080.583
  
                   Maximum memory used (kb):      375828.
                   Average memory used (kb):           0.
  
                          Minor page faults:      2238668
                          Major page faults:           15
                 Voluntary context switches:       390350
